
Host: FACC02D75Y4MD6T.tld

Timers On : Tue Jul  6 11:24:34 2021
Timers Off: Tue Jul  6 11:24:45 2021

Wall Time:       10.98 seconds

                                                       Time (seconds)
Module                                       User      System        Wall        Calls

--------------------------------------------------------------------------------------

**************************************************************************************

Host: FACC02D75Y4MD6T.tld

Timers On : Tue Jul  6 11:30:05 2021
Timers Off: Tue Jul  6 11:34:03 2021

Wall Time:      238.35 seconds

                                                       Time (seconds)
Module                                       User      System        Wall        Calls

--------------------------------------------------------------------------------------

**************************************************************************************

Host: FACC02D75Y4MD6T.tld

Timers On : Tue Jul  6 13:00:06 2021
Timers Off: Tue Jul  6 13:03:15 2021

Wall Time:      189.35 seconds

                                                       Time (seconds)
Module                                       User      System        Wall        Calls

--------------------------------------------------------------------------------------

**************************************************************************************

Host: FACC02D75Y4MD6T.tld

Timers On : Tue Jul  6 13:35:42 2021
Timers Off: Tue Jul  6 13:38:26 2021

Wall Time:      164.08 seconds

                                                       Time (seconds)
Module                                       User      System        Wall        Calls

--------------------------------------------------------------------------------------

**************************************************************************************

Host: FACC02D75Y4MD6T.tld

Timers On : Tue Jul  6 16:19:41 2021
Timers Off: Tue Jul  6 16:19:52 2021

Wall Time:       10.72 seconds

                                                       Time (seconds)
Module                                       User      System        Wall        Calls

--------------------------------------------------------------------------------------

**************************************************************************************

Host: FACC02D75Y4MD6T.tld

Timers On : Tue Jul  6 16:20:58 2021
Timers Off: Tue Jul  6 16:23:58 2021

Wall Time:      180.03 seconds

                                                       Time (seconds)
Module                                       User      System        Wall        Calls

--------------------------------------------------------------------------------------

**************************************************************************************

Host: FACC02D75Y4MD6T.tld

Timers On : Tue Jul  6 16:35:23 2021
Timers Off: Tue Jul  6 16:38:54 2021

Wall Time:      211.54 seconds

                                                       Time (seconds)
Module                                       User      System        Wall        Calls

--------------------------------------------------------------------------------------

**************************************************************************************
